% Model:              Half_Quarter_box.mph
% Version:            COMSOL 6.1.0.357
% Date:               Aug 30 2023, 14:52
% Dimension:          1
% Nodes:              97
% Expressions:        1
% Description:        Global
% freq (Hz)               \sigma_spherical, 
80                        0.01000059500769961
100                       0.014011778366008688
120                       0.018145093729796846
140                       0.02246956695848586
160                       0.027208130978068623
180                       0.032718339821440685
200                       0.03949575415062617
220                       0.04819634370777509
240                       0.05966432861335431
260                       0.07493617445313125
280                       0.09516346002372335
300                       0.12136419093607052
320                       0.1539208899138811
340                       0.19189831548316275
360                       0.2326026515511366
380                       0.27203008014846214
400                       0.306329489345927
420                       0.3333343754726576
440                       0.3530326338031761
460                       0.36692822895869287
480                       0.37710333843116806
500                       0.38560017489321824
520                       0.3942044140136358
540                       0.40445522056477334
560                       0.4177129890682698
580                       0.4351874344913519
600                       0.4578713348819638
620                       0.486338691347698
640                       0.5203922104401769
660                       0.5586440249991574
680                       0.5983113161196704
700                       0.6356597781429949
720                       0.6672699529921822
740                       0.6915337587423892
760                       0.7092961244965732
780                       0.723178840633871
800                       0.7362083353937201
820                       0.750654423878292
840                       0.767494290700438
860                       0.7864560459156765
880                       0.8064607013809602
900                       0.826259531758277
920                       0.845016808205616
940                       0.862604440325077
960                       0.8795351568508091
980                       0.8966568539912956
1000                      0.914803618665984
1020                      0.9345372325240054
1040                      0.9560201100336756
1060                      0.979010067460307
1080                      1.002954747158227
1100                      1.0271520674259378
1120                      1.0509160026230078
1140                      1.0736676887772159
1160                      1.0949000211155597
1180                      1.1140459226834007
1200                      1.1303669235610592
1220                      1.142996292068526
1240                      1.151179339035494
1260                      1.1545974625947462
1280                      1.1535729023840346
1300                      1.1490267533945147
1320                      1.1422350536858465
1340                      1.1345319501813742
1360                      1.1270816788683204
1380                      1.120755087977398
1400                      1.1160862878928153
1420                      1.1132720316835822
1440                      1.1121906927083494
1460                      1.112436736813616
1480                      1.1133782549027322
1500                      1.1142449065566928
1520                      1.1142420331215566
1540                      1.112670999769023
1560                      1.1090296571876364
1580                      1.103077984255078
1600                      1.0948699252939857
1620                      1.0847525942200236
1640                      1.0733222804954445
1660                      1.06132963588955
1680                      1.0495513177942613
1700                      1.0386663973340478
1720                      1.0291710492431763
1740                      1.0213426930698404
1760                      1.015246087027314
1780                      1.0107680998605832
1800                      1.0076697031397244
1820                      1.0056448892638254
1840                      1.0043747963830332
1860                      1.0035662575122382
1880                      1.002971344309087
1900                      1.002393735833971
1920                      1.0016901157594902
1940                      1.0007692736173759
1960                      0.9995863518503205
1980                      0.9981307265395669
2000                      0.9964104598697711
